! Ansys Lumerical
! Created: sex jun 10 13:43:28 2022
! Project File: /media/leonardo/datam02/MMI-LeonardoPessôa/MMI-Multi-Mode-Interferometer-2x2/MMI_Lumerical.lms
! Touchstone File Format: Version 1.0
! Two-Port Data Order: 21_12
# HZ S MA R 50.00

! Optical Port List
! Port[0] = {"port 1","mode 1",1,"LEFT"}
! Port[1] = {"port 2","mode 1",1,"RIGHT"}
! Port[2] = {"port 3","mode 1",1,"RIGHT"}


! FREQ                 AMP                    PHASE                   AMP                    PHASE                   AMP                    PHASE  
1.8737028625000000e+14 1.8961715673696221e-02 1.3195307385084527e+02 5.5186612550124836e-01 7.7390117000123226e+01 6.0781931862186700e-01 1.6938536794518174e+02
                       5.5186612550124925e-01 7.7390117000123297e+01 1.8961715673694014e-02 1.3195307385103979e+02 2.3098214902099092e-02 7.7445416499398647e+01
                       6.0781931866167571e-01 1.6938536794255350e+02 2.3098214980618596e-02 7.7445416883740450e+01 1.8961715627294529e-02 1.3195307427878021e+02
1.8744891415023081e+14 1.7068766785166889e-02 2.2985287508826684e+02 5.6448471951433210e-01 1.1774793030644483e+02 6.0277721793604833e-01 2.1096893609583114e+02
                       5.6448471951433232e-01 1.1774793030644466e+02 1.7068766785158916e-02 2.2985287508845451e+02 1.9599079036233372e-02 1.7298869610612817e+02
                       6.0277721801377859e-01 2.1096893609840174e+02 1.9599079154936815e-02 1.7298869611817747e+02 1.7068766693913273e-02 2.2985287553598545e+02
1.8752760806884972e+14 5.2616401878030523e-03 2.9626708937087255e+02 5.6102642180521878e-01 1.5948632784527709e+02 5.9799354120785175e-01 2.5213475975199788e+02
                       5.6102642180522377e-01 1.5948632784527655e+02 5.2616401878009100e-03 2.9626708937102603e+02 1.5086727053646458e-02 2.1226133970711660e+02
                       5.9799354117340686e-01 2.5213475975852305e+02 1.5086727201634158e-02 2.1226134072927189e+02 5.2616401487512714e-03 2.9626709049260376e+02
1.8760636808903822e+14 1.2756543610934862e-02 3.4189435625184836e+02 5.8559325265331863e-01 2.0232668728500408e+02 6.0773920329496611e-01 2.9252376854678596e+02
                       5.8559325265332540e-01 2.0232668728500394e+02 1.2756543610930857e-02 3.4189435625205073e+02 1.8966833171468862e-02 3.0492562481004194e+02
                       6.0773920334452880e-01 2.9252376853815304e+02 1.8966833152083026e-02 3.0492562544770658e+02 1.2756543532567919e-02 3.4189435647377593e+02
1.8768519429411766e+14 1.4993814217996624e-02 4.4316344867817827e+02 5.6239361681000255e-01 2.4412541667793630e+02 6.2562352606278249e-01 3.3504951890652461e+02
                       5.6239361681000466e-01 2.4412541667793627e+02 1.4993814217994684e-02 4.4316344867837472e+02 1.5667856496916713e-02 4.0761396850966662e+02
                       6.2562352609128702e-01 3.3504951890681428e+02 1.5667856536009963e-02 4.0761396866731735e+02 1.4993814097663620e-02 4.4316344927017610e+02
1.8776408676754941e+14 1.2683350390316324e-02 5.3444475753194752e+02 5.6421926455538096e-01 2.8403700083390396e+02 6.2394178378842902e-01 3.7909142649816926e+02
                       5.6421926455538229e-01 2.8403700083390356e+02 1.2683350390314057e-02 5.3444475753212078e+02 9.2033835510640857e-03 4.7084382815650088e+02
                       6.2394178380700194e-01 3.7909142650353397e+02 9.2033837703185666e-03 4.7084382839004934e+02 1.2683350259562262e-02 5.3444475805212426e+02
1.8784304559293525e+14 1.2331550259751013e-02 5.7987930373763436e+02 5.7681688635670658e-01 3.2541211484060824e+02 5.9504479320337278e-01 4.2003746903012819e+02
                       5.7681688635671458e-01 3.2541211484060796e+02 1.2331550259752884e-02 5.7987930373780625e+02 2.3473504369188464e-02 5.2089328490191201e+02
                       5.9504479323314297e-01 4.2003746903047244e+02 2.3473504270940571e-02 5.2089328560037643e+02 1.2331550099534148e-02 5.7987930354683908e+02
1.8792207085401769e+14 1.8084120294268830e-02 6.6584719672118797e+02 6.0135911367876560e-01 3.6893469465814155e+02 6.0922120985474248e-01 4.6024417414762246e+02
                       6.0135911367876960e-01 3.6893469465814161e+02 1.8084120294262648e-02 6.6584719672138169e+02 1.9797143370768946e-02 6.3509422996593082e+02
                       6.0922120995789675e-01 4.6024417414249433e+02 1.9797143374654085e-02 6.3509423006881855e+02 1.8084120189665986e-02 6.6584719699144125e+02
1.8800116263468016e+14 1.4145131212723388e-02 7.6078512443390218e+02 5.8616440804070313e-01 4.1168735582852696e+02 6.2479413002095818e-01 5.0269855340396981e+02
                       5.8616440804070469e-01 4.1168735582852696e+02 1.4145131212718312e-02 7.6078512443410318e+02 9.6030360235052174e-03 7.2293380491272262e+02
                       6.2479413007446793e-01 5.0269855340834317e+02 9.6030361551254616e-03 7.2293380469623276e+02 1.4145131051549244e-02 7.6078512469699456e+02
1.8808032101894738e+14 9.6271345039743023e-03 8.2491729031871569e+02 5.7494402634149688e-01 4.5300432243516434e+02 6.1996687105630877e-01 5.4665942828770403e+02
                       5.7494402634149844e-01 4.5300432243516417e+02 9.6271345039739570e-03 8.2491729031890145e+02 9.7605697427689559e-03 7.3866488723184148e+02
                       6.1996687094635972e-01 5.4665942828964342e+02 9.7605697124505484e-03 7.3866488892780455e+02 9.6271343626697769e-03 8.2491729053421841e+02
1.8815954609098569e+14 1.6036384536856577e-02 9.1839922781829728e+02 5.7598176840367832e-01 4.9332009037760287e+02 5.9680570927700238e-01 5.8700556581468254e+02
                       5.7598176840368720e-01 4.9332009037760258e+02 1.6036384536856605e-02 9.1839922781848020e+02 2.2773275716750373e-02 8.5213322958546541e+02
                       5.9680570929464660e-01 5.8700556581352328e+02 2.2773275642576227e-02 8.5213322979432837e+02 1.6036384506881558e-02 9.1839922791414654e+02
1.8823883793510325e+14 1.5928131642418158e-02 1.0032579212943720e+03 5.9545674221256839e-01 5.3609034797157256e+02 6.1076222098924471e-01 6.2760011660033842e+02
                       5.9545674221257228e-01 5.3609034797157278e+02 1.5928131642413208e-02 1.0032579212945554e+03 1.3069569666751756e-02 9.6553646308938357e+02
                       6.1076222112561906e-01 6.2760011659926897e+02 1.3069569826355524e-02 9.6553646308655902e+02 1.5928131451869647e-02 1.0032579217219557e+03
1.8831819663575044e+14 1.0750120918850628e-02 1.0858545104487844e+03 5.9380188307145820e-01 5.7834084915100652e+02 6.3574647090410763e-01 6.7009131385287480e+02
                       5.9380188307146053e-01 5.7834084915100630e+02 1.0750120918845082e-02 1.0858545104489804e+03 7.6466165727227565e-03 1.0046294798501021e+03
                       6.3574647095253667e-01 6.7009131385951946e+02 7.6466167208088425e-03 1.0046294813510672e+03 1.0750120806228641e-02 1.0858545104414400e+03
1.8839762227752003e+14 1.1507521106990338e-02 1.1294891634679934e+03 5.9097968418196511e-01 6.2006938226452655e+02 6.2922482733199236e-01 7.1470799320755896e+02
                       5.9097968418196878e-01 6.2006938226452621e+02 1.1507521106986494e-02 1.1294891634681837e+03 1.4654683489811540e-02 1.0870589850211506e+03
                       6.2922482728389795e-01 7.1470799320421372e+02 1.4654683489756572e-02 1.0870589860031553e+03 1.1507521052467856e-02 1.1294891635488680e+03
1.8847711494514769e+14 1.4038027533060167e-02 1.2270354791806842e+03 6.0167256900410615e-01 6.6164509478324328e+02 6.0838024189675155e-01 7.5613907819877647e+02
                       6.0167256900411314e-01 6.6164509478324328e+02 1.4038027533059855e-02 1.2270354791808747e+03 1.0331823108865231e-02 1.1908173223388526e+03
                       6.0838024187609552e-01 7.5613907818833229e+02 1.0331823269768114e-02 1.1908173231626297e+03 1.4038027447075623e-02 1.2270354799352665e+03
1.8855667472351203e+14 1.1823379052229186e-02 1.3313511973325162e+03 6.0460790065604797e-01 7.0447155092322521e+02 6.1162027705136723e-01 7.9645552956064671e+02
                       6.0460790065605141e-01 7.0447155092322521e+02 1.1823379052226423e-02 1.3313511973326938e+03 1.8527227550773359e-03 1.2786918559551530e+03
                       6.1162027718599621e-01 7.9645552956239646e+02 1.8527229249134644e-03 1.2786918635678862e+03 1.1823378913344177e-02 1.3313511977574408e+03
1.8863630169763516e+14 7.2824816173444181e-03 1.3976462377960552e+03 6.0526784220024543e-01 7.4710881400721905e+02 6.3299327156459440e-01 8.3894290737617700e+02
                       6.0526784220024554e-01 7.4710881400721894e+02 7.2824816173393562e-03 1.3976462377962259e+03 1.2121737386253705e-02 1.2887642124066494e+03
                       6.3299327157160856e-01 8.3894290738641803e+02 1.2121737111689733e-02 1.2887642133238840e+03 7.2824816005665040e-03 1.3976462383959824e+03
1.8871599595268272e+14 1.1500272790915320e-02 1.4770805348923325e+03 5.9897287331874449e-01 7.8894429924298186e+02 6.2553843641743423e-01 8.8278835234678036e+02
                       5.9897287331874804e-01 7.8894429924298106e+02 1.1500272790908459e-02 1.4770805348925176e+03 1.3278530487566656e-02 1.4215358424902274e+03
                       6.2553843639284679e-01 8.8278835234737255e+02 1.3278530404260216e-02 1.4215358433007161e+03 1.1500272764071602e-02 1.4770805357548820e+03
1.8879575757396450e+14 1.1375359712819329e-02 1.5606218256538000e+03 6.0994505665722309e-01 8.3060851960195714e+02 6.1666297573795825e-01 9.2437078030965711e+02
                       6.0994505665722998e-01 8.3060851960195703e+02 1.1375359712816838e-02 1.5606218256539942e+03 4.5447132729855054e-03 1.5267603053606886e+03
                       6.1666297573964890e-01 9.2437078029585211e+02 4.5447134272129644e-03 1.5267603080487174e+03 1.1375359550620452e-02 1.5606218268533923e+03
1.8887558664693447e+14 3.9886286675625375e-03 1.6652175303331021e+03 6.1179354877735703e-01 8.7290618340014669e+02 6.2439630351517250e-01 9.6525469519498733e+02
                       6.1179354877736136e-01 8.7290618340014657e+02 3.9886286675618662e-03 1.6652175303332745e+03 6.6189358299443678e-03 1.5104365344839073e+03
                       6.2439630364623511e-01 9.6525469519474620e+02 6.6189355137320025e-03 1.5104365343524041e+03 3.9886286049611135e-03 1.6652175322441155e+03
1.8895548325719122e+14 7.5323669087814455e-03 1.6854308484114463e+03 6.1158988042026885e-01 9.1574135981786287e+02 6.3664877438461587e-01 1.0087406531287817e+03
                       6.1158988042027107e-01 9.1574135981786264e+02 7.5323669087816146e-03 1.6854308484116084e+03 1.1580007585257275e-02 1.6332448633591569e+03
                       6.3664877443260337e-01 1.0087406531321287e+03 1.1580007315554846e-02 1.6332448637185662e+03 7.5323667644615370e-03 1.6854308491176671e+03
1.8903544749047822e+14 8.7532228455474530e-03 1.8017835313081428e+03 6.1421439165109615e-01 9.5737125588862887e+02 6.2923478362254015e-01 1.0518180734755983e+03
                       6.1421439165109992e-01 9.5737125588862841e+02 8.7532228455413554e-03 1.8017835313083133e+03 5.9279257690763778e-03 1.7518336262262098e+03
                       6.2923478362118668e-01 1.0518180734785249e+03 5.9279256686899564e-03 1.7518336280766009e+03 8.7532227381888466e-03 1.8017835327531507e+03
1.8911547943268419e+14 5.9486238730275028e-03 1.9117926674710702e+03 6.2291325512735807e-01 1.0004043201886824e+03 6.1834472074375646e-01 1.0938463957696249e+03
                       6.2291325512736562e-01 1.0004043201886819e+03 5.9486238730221989e-03 1.9117926674712674e+03 4.5218844878417326e-03 1.7317080455351822e+03
                       6.1834472075799995e-01 1.0938463957656475e+03 4.5218842881241360e-03 1.7317080423323555e+03 5.9486238363703082e-03 1.9117926703284845e+03
1.8919557916984328e+14 4.4895658449034068e-03 1.8853633625253988e+03 6.2944064437079839e-01 1.0427629620655855e+03 6.3026426343222286e-01 1.1351799836015334e+03
                       6.2944064437080260e-01 1.0427629620655855e+03 4.4895658449021622e-03 1.8853633625255829e+03 1.0676441797007904e-02 1.8607781896539216e+03
                       6.3026426348358955e-01 1.1351799836046202e+03 1.0676441545403261e-02 1.8607781888835600e+03 4.4895656553504207e-03 1.8853633604116881e+03
1.8927574678813559e+14 8.5732922448023396e-03 2.0152055310835226e+03 6.2213918467664753e-01 1.0858736048614305e+03 6.3183739001433981e-01 1.1786962689557108e+03
                       6.2213918467664997e-01 1.0858736048614303e+03 8.5732922448017428e-03 2.0152055310837015e+03 6.9551741023467497e-03 1.9945877396293570e+03
                       6.3183739007433060e-01 1.1786962689574927e+03 6.9551739309049784e-03 1.9945877399693486e+03 8.5732920202178896e-03 2.0152055316200433e+03
1.8935598237388725e+14 5.3307956254309936e-03 2.1361835738012455e+03 6.2037544377852893e-01 1.1277186739503875e+03 6.2743584156175147e-01 1.2210567046961503e+03
                       6.2037544377853393e-01 1.1277186739503873e+03 5.3307956254270159e-03 2.1361835738013897e+03 3.3519276445809509e-03 1.9423717129699144e+03
                       6.2743584152753840e-01 1.2210567046930482e+03 3.3519277023291248e-03 1.9423717099809169e+03 5.3307954543911637e-03 2.1361835760654162e+03
1.8943628601357084e+14 3.1677883407849926e-03 2.0975942572153931e+03 6.2879229693239691e-01 1.1697477868212216e+03 6.2579298230948799e-01 1.2629417789218380e+03
                       6.2879229693240291e-01 1.1697477868212211e+03 3.1677883407890722e-03 2.0975942572155664e+03 8.6069661161586736e-03 2.0897213932025506e+03
                       6.2579298240658554e-01 1.2629417789231966e+03 8.6069659931890096e-03 2.0897213918228999e+03 3.1677882959937676e-03 2.0975942518100069e+03
1.8951665779380569e+14 8.3945066567566451e-03 2.2244718586903309e+03 6.3771125543082208e-01 1.2131268943923926e+03 6.4122107806962358e-01 1.3055450737997146e+03
                       6.3771125543082874e-01 1.2131268943923926e+03 8.3945066567533439e-03 2.2244718586905074e+03 8.7623284333355096e-03 2.2103018156858543e+03
                       6.4122107809627360e-01 1.3055450737968592e+03 8.7623283245834085e-03 2.2103018149967970e+03 8.3945064802707272e-03 2.2244718579829728e+03
1.8959709780135825e+14 7.1880856779798566e-03 2.3552701589895833e+03 6.3347095880814752e-01 1.2557418396647690e+03 6.3736491249219829e-01 1.3490021798163693e+03
                       6.3347095880815008e-01 1.2557418396647690e+03 7.1880856779764669e-03 2.3552701589897733e+03 4.2721434327557973e-03 2.3828669039444758e+03
                       6.3736491257767902e-01 1.3490021798224832e+03 4.2721433989097524e-03 2.3828669056115364e+03 7.1880853944378152e-03 2.3552701596499919e+03
1.8967760612314225e+14 2.9722320641468528e-03 2.3974610427500479e+03 6.3781816817536885e-01 1.2981059520754807e+03 6.2944759458542276e-01 1.3922131124431062e+03
                       6.3781816817537462e-01 1.2981059520754802e+03 2.9722320641505894e-03 2.3974610427501680e+03 6.8382441605846812e-03 2.2792815439751107e+03
                       6.2944759454666432e-01 1.3922131124369187e+03 6.8382443121363344e-03 2.2792815430527639e+03 2.9722318643226565e-03 2.3974610401392843e+03
1.8975818284621922e+14 5.0463033660460045e-03 2.4520679012558239e+03 6.4479730079874520e-01 1.3408582062955711e+03 6.2570950630569466e-01 1.4329083155647543e+03
                       6.4479730079875153e-01 1.3408582062955711e+03 5.0463033660484505e-03 2.4520679012560086e+03 5.5859635784138969e-03 2.4297896245090769e+03
                       6.2570950635530742e-01 1.4329083155719286e+03 5.5859636032438232e-03 2.4297896237003847e+03 5.0463033169591042e-03 2.4520678994061254e+03
1.8983882805779856e+14 9.2429066683254041e-03 2.5682508272744435e+03 6.4647315769399583e-01 1.3845183929560737e+03 6.4673000931130353e-01 1.4759928182899916e+03
                       6.4647315769400004e-01 1.3845183929560737e+03 9.2429066683223718e-03 2.5682508272746172e+03 5.2941248064523414e-03 2.5540860696325494e+03
                       6.4673000931682023e-01 1.4759928182872816e+03 5.2941247515786785e-03 2.5540860697140261e+03 9.2429064373064918e-03 2.5682508271583392e+03
1.8991954184523809e+14 6.3345594781991756e-03 2.6957452237952257e+03 6.4062575935930355e-01 1.4271658294165577e+03 6.4535667399409313e-01 1.5198781955396350e+03
                       6.4062575935930699e-01 1.4271658294165572e+03 6.3345594781941293e-03 2.6957452237954280e+03 2.2364032720420752e-03 2.4287589904132233e+03
                       6.4535667402811292e-01 1.5198781955409788e+03 2.2364033953309031e-03 2.4287589928810899e+03 6.3345591929195866e-03 2.6957452241182127e+03
1.9000032429604425e+14 1.7353959259291867e-03 2.8077574044385310e+03 6.4256387498294321e-01 1.4692573709054034e+03 6.3051405720402298e-01 1.5628232755176414e+03
                       6.4256387498294809e-01 1.4692573709054031e+03 1.7353959259272774e-03 2.8077574044387225e+03 4.5147816910335358e-03 2.3068125657650940e+03
                       6.3051405731232069e-01 1.5628232755141103e+03 4.5147817521166127e-03 2.3068125649297613e+03 1.7353957718077605e-03 2.8077574067864125e+03
1.9008117549787234e+14 5.5224199210160080e-03 2.7698908836298556e+03 6.5414068388610358e-01 1.5119907686711704e+03 6.3208226980545557e-01 1.6041485603278913e+03
                       6.5414068388610691e-01 1.5119907686711701e+03 5.5224199210170705e-03 2.7698908836300479e+03 2.3328766507481986e-03 2.4156623690762831e+03
                       6.3208226985506255e-01 1.6041485603337553e+03 2.3328766229412435e-03 2.4156623697182968e+03 5.5224199071505688e-03 2.7698908824997716e+03
1.9016209553852703e+14 8.7276867171699728e-03 2.9028156890323635e+03 6.5872069764761820e-01 1.5559871793009263e+03 6.5111487766206966e-01 1.6470218078653425e+03
                       6.5872069764762287e-01 1.5559871793009261e+03 8.7276867171682034e-03 2.9028156890325349e+03 2.4404783165301101e-03 2.5384885115086404e+03
                       6.5111487768652976e-01 1.6470218078675512e+03 2.4404782200753978e-03 2.5384885135961194e+03 8.7276865079207941e-03 2.9028156887991067e+03
1.9024308450596253e+14 6.0638340751487333e-03 3.0255514396743165e+03 6.5016594984118614e-01 1.5991240723048622e+03 6.5570223724277765e-01 1.6917171074615417e+03
                       6.5016594984119014e-01 1.5991240723048622e+03 6.0638340751436332e-03 3.0255514396745002e+03 1.0117832913544491e-03 2.4779276590628101e+03
                       6.5570223723406196e-01 1.6917171074630944e+03 1.0117833990179739e-03 2.4779276561913907e+03 6.0638338876426523e-03 3.0255514396759208e+03
1.9032414248828291e+14 1.8252164827623713e-03 3.1417106426713572e+03 6.5077307768237824e-01 1.6416330704672421e+03 6.3349334011699776e-01 1.7347437739470222e+03
                       6.5077307768238413e-01 1.6416330704672419e+03 1.8252164827596970e-03 3.1417106426716387e+03 2.4195956272932717e-03 2.3212203880618786e+03
                       6.3349334018190928e-01 1.7347437739451495e+03 2.4195955876081328e-03 2.3212203882748104e+03 1.8252163637446483e-03 3.1417106455121889e+03
1.9040526957374253e+14 4.6778778437123946e-03 3.1248926147713214e+03 6.5998857860689997e-01 1.6840491327988811e+03 6.3378987081293281e-01 1.7757064743203505e+03
                       6.5998857860690630e-01 1.6840491327988807e+03 4.6778778437104908e-03 3.1248926147715001e+03 1.4994721432982799e-03 2.4712295791119782e+03
                       6.3378987085479344e-01 1.7757064743233586e+03 1.4994721302549433e-03 2.4712295853602432e+03 4.6778777941043227e-03 3.1248926139022915e+03
1.9048646585074628e+14 5.2886504437062217e-03 3.2554306352892659e+03 6.6886998677579834e-01 1.7281731673004174e+03 6.5597723527304186e-01 1.8187343835511494e+03
                       6.6886998677580245e-01 1.7281731673004172e+03 5.2886504437046926e-03 3.2554306352894437e+03 4.1811770340690317e-04 2.5480713811712935e+03
                       6.5597723533097685e-01 1.8187343835523661e+03 4.1811755878153192e-04 2.5480713938251006e+03 5.2886502851797251e-03 3.2554306351042137e+03
1.9056773140784984e+14 3.4005348728094412e-03 3.3676665708697069e+03 6.5806828739231771e-01 1.7716600271578313e+03 6.5737113630388611e-01 1.8635261798648262e+03
                       6.5806828739232259e-01 1.7716600271578311e+03 3.4005348728050437e-03 3.3676665708698888e+03 1.4972591053872130e-03 2.6166499625430524e+03
                       6.5737113630042021e-01 1.8635261798662882e+03 1.4972590252269895e-03 2.6166499630556314e+03 3.4005347161128671e-03 3.3676665708496253e+03
1.9064906633376016e+14 8.6426830169931274e-04 3.3927437884252267e+03 6.5404769027208520e-01 1.8142748292346491e+03 6.4501864203563997e-01 1.9071025988114452e+03
                       6.5404769027209109e-01 1.8142748292346489e+03 8.6426830169652276e-04 3.3927437884251476e+03 2.7905476410882263e-03 2.7390877634852059e+03
                       6.4501864208215520e-01 1.9071025988120023e+03 2.7905477089652767e-03 2.7390877659147732e+03 8.6426829301199494e-04 3.3927437816600996e+03
1.9073047071733562e+14 5.6600729386237919e-03 3.4913185149988926e+03 6.6293168926063228e-01 1.8564880082831280e+03 6.3393953181588603e-01 1.9482372243224522e+03
                       6.6293168926063806e-01 1.8564880082831276e+03 5.6600729386196962e-03 3.4913185149990736e+03 3.1651726780883090e-03 2.8645681940274735e+03
                       6.3393953185564544e-01 1.9482372243223754e+03 3.1651727585608339e-03 2.8645681991373399e+03 5.6600728331005186e-03 3.4913185152624510e+03
1.9081194464758650e+14 4.7158690238985309e-03 3.6094602263746810e+03 6.7769145344534643e-01 1.9007921974875644e+03 6.6219034764040241e-01 1.9914268910798792e+03
                       6.7769145344535098e-01 1.9007921974875637e+03 4.7158690238967823e-03 3.6094602263748934e+03 1.3573480366793880e-03 2.8299778573472017e+03
                       6.6219034768191043e-01 1.9914268910845944e+03 1.3573479377846406e-03 2.8299778519926354e+03 4.7158688408064572e-03 3.6094602267450564e+03
1.9089348821367522e+14 3.1641212045304596e-03 3.7179660464933718e+03 6.7059684701247801e-01 1.9447284344952027e+03 6.5874385161722104e-01 2.0359773523703718e+03
                       6.7059684701248368e-01 1.9447284344952025e+03 3.1641212045282405e-03 3.7179660464935741e+03 4.2850745780834611e-03 2.9676020063277556e+03
                       6.5874385161376636e-01 2.0359773523704580e+03 4.2850745696646469e-03 2.9676020070431809e+03 3.1641210316381073e-03 3.7179660459216775e+03
1.9097510150491662e+14 1.0485413185358560e-03 3.7550990299676741e+03 6.6321581826660647e-01 1.9877108160473565e+03 6.5117601991945251e-01 2.0798643389662989e+03
                       6.6321581826661202e-01 1.9877108160473565e+03 1.0485413185322889e-03 3.7550990299677251e+03 4.0341833321221460e-03 3.0852085116530880e+03
                       6.5117601993055252e-01 2.0798643389689605e+03 4.0341833370061714e-03 3.0852085159182111e+03 1.0485413804464611e-03 3.7550990301883157e+03
1.9105678461077844e+14 2.3428983023853992e-03 3.8444157405997144e+03 6.6743468660340055e-01 2.0298782786238198e+03 6.3900970346850761e-01 2.1208388514604799e+03
                       6.6743468660340610e-01 2.0298782786238198e+03 2.3428983023819181e-03 3.8444157405998808e+03 3.0704131996187448e-03 3.2180388051713235e+03
                       6.3900970351588149e-01 2.1208388514661665e+03 3.0704131905217097e-03 3.2180388099137272e+03 2.3428981611500143e-03 3.8444157416762873e+03
1.9113853762088147e+14 3.0047569138205747e-03 3.9457674844463763e+03 6.8116698920727181e-01 2.0740097249471482e+03 6.6543746878027432e-01 2.1648720679274975e+03
                       6.8116698920727559e-01 2.0740097249471478e+03 3.0047569138175341e-03 3.9457674844466324e+03 2.0593104032095222e-03 3.2182315956948119e+03
                       6.6543746880455690e-01 2.1648720679271692e+03 2.0593103029447660e-03 3.2182315955830177e+03 3.0047567701683917e-03 3.9457674834686995e+03
1.9122036062500000e+14 1.9541868355444237e-03 4.0707861341865150e+03 6.7753752504636633e-01 2.1181947137745042e+03 6.6329171788096208e-01 2.2090308312585821e+03
                       6.7753752504637155e-01 2.1181947137745042e+03 1.9541868355440377e-03 4.0707861341867597e+03 3.7867090676497596e-03 3.3341704300670694e+03
                       6.6329171795851360e-01 2.2090308312591610e+03 3.7867090862017103e-03 3.3341704338363929e+03 1.9541867747936148e-03 4.0707861301764142e+03
1.9130225371306209e+14 2.9738040341792588e-03 4.0641991970503027e+03 6.7375862184953761e-01 2.1616862083773649e+03 6.5472314329132197e-01 2.2533654073954672e+03
                       6.7375862184954238e-01 2.1616862083773649e+03 2.9738040341797281e-03 4.0641991970504482e+03 2.9856782680459208e-03 3.3878469686206067e+03
                       6.5472314329521031e-01 2.2533654073954413e+03 2.9856779699307555e-03 3.3878469694446435e+03 2.9738039060611138e-03 4.0641991977082753e+03
1.9138421697514997e+14 2.4478131947952234e-03 4.2178457604710020e+03 6.7627256756240639e-01 2.2043781992269751e+03 6.5199206988601399e-01 2.2943127830988515e+03
                       6.7627256756241139e-01 2.2043781992269751e+03 2.4478131947925337e-03 4.2178457604712121e+03 3.5430087082712410e-03 3.5285424366153479e+03
                       6.5199206982724300e-01 2.2943127830996036e+03 3.5430085634304206e-03 3.5285424381401072e+03 2.4478130504345394e-03 4.2178457602875988e+03
1.9146625050150022e+14 2.4942213577973642e-03 4.3034308499077897e+03 6.8694272061558492e-01 2.2482929855473440e+03 6.6872733681506080e-01 2.3388880352646056e+03
                       6.8694272061558870e-01 2.2482929855473440e+03 2.4942213577944482e-03 4.3034308499080926e+03 2.7380423431250427e-03 3.5939164071401965e+03
                       6.6872733687797670e-01 2.3388880352599158e+03 2.7380422824084261e-03 3.5939164103385874e+03 2.4942213078670973e-03 4.3034308476805054e+03
1.9154835438250428e+14 9.3068786324341721e-04 4.3764503149439679e+03 6.8147767012041416e-01 2.2924236408515499e+03 6.6651454133202781e-01 2.3828261530130949e+03
                       6.8147767012041904e-01 2.2924236408515499e+03 9.3068786324220919e-04 4.3764503149443590e+03 1.3632068751367776e-03 3.5998587480074170e+03
                       6.6651454139927346e-01 2.3828261530216137e+03 1.3632066694721670e-03 3.5998587349803274e+03 9.3068789296446336e-04 4.3764503203573813e+03
1.9163052870870872e+14 3.1267802017403545e-03 4.4446904424242130e+03 6.7768237763759265e-01 2.3360305071043363e+03 6.5514748155455016e-01 2.4271019311990044e+03
                       6.7768237763759820e-01 2.3360305071043363e+03 3.1267802017417227e-03 4.4446904424244267e+03 6.1260951355199978e-03 3.7241003302815252e+03
                       6.5514748156801150e-01 2.4271019312084259e+03 6.1260949260239159e-03 3.7241003291631919e+03 3.1267801489813724e-03 4.4446904419922721e+03
1.9171277357081547e+14 2.2438723158078777e-03 4.5133894501461555e+03 6.8246977902973704e-01 2.3791317812389107e+03 6.6603992882410468e-01 2.4690482927921266e+03
                       6.8246977902974226e-01 2.3791317812389107e+03 2.2438723158067471e-03 4.5133894501463319e+03 4.0105243751052061e-03 3.8426086354544423e+03
                       6.6603992875126350e-01 2.4690482927880726e+03 4.0105242931811049e-03 3.8426086360843055e+03 2.2438723017371254e-03 4.5133894480487570e+03
1.9179508905968228e+14 1.4951915587572053e-03 4.5989290576487938e+03 6.8986738310535256e-01 2.4235452202218480e+03 6.7219435741553235e-01 2.5135934437164374e+03
                       6.8986738310535733e-01 2.4235452202218476e+03 1.4951915587525300e-03 4.5989290576489693e+03 1.6280384922945962e-03 3.9664751953279233e+03
                       6.7219435754195356e-01 2.5135934437139827e+03 1.6280383115605600e-03 3.9664752061129384e+03 1.4951915801630087e-03 4.5989290601463890e+03
1.9187747526632303e+14 2.9328578047955493e-03 4.6914011769638582e+03 6.8493881671692347e-01 2.4674458232517977e+03 6.7080099082916145e-01 2.5575148607859637e+03
                       6.8493881671692869e-01 2.4674458232517973e+03 2.9328578047925838e-03 4.6914011769641174e+03 2.8256264862889231e-03 3.9497968756809964e+03
                       6.7080099084087808e-01 2.5575148607939173e+03 2.8256266321977359e-03 3.9497968709960423e+03 2.9328576791114854e-03 4.6914011770766510e+03
1.9195993228190803e+14 2.7208595920443711e-04 4.6926269014737336e+03 6.8600442417357643e-01 2.5110745775774858e+03 6.5977868782427884e-01 2.6011227913515208e+03
                       6.8600442417358176e-01 2.5110745775774853e+03 2.7208595920045299e-04 4.6926269014741974e+03 4.3802501224659224e-03 4.0658648651262283e+03
                       6.5977868781187310e-01 2.6011227913524558e+03 4.3802501515368087e-03 4.0658648636026601e+03 2.7208599743725099e-04 4.6926268960960488e+03
1.9204246019776441e+14 2.5039606693967867e-03 4.8525937905266501e+03 6.8894240060521361e-01 2.5546474585761744e+03 6.7463369124037476e-01 2.6443748400582981e+03
                       6.8894240060521805e-01 2.5546474585761739e+03 2.5039606693974723e-03 4.8525937905268593e+03 3.1495117356446591e-03 4.1754349254648832e+03
                       6.7463369124511274e-01 2.6443748400549134e+03 3.1495115943864010e-03 4.1754349259733017e+03 2.5039606463985761e-03 4.8525937898877810e+03
1.9212505910537634e+14 2.6793431978007994e-03 4.9079406785861656e+03 6.8810289855964590e-01 2.5991027849487468e+03 6.7738935240835896e-01 2.6888011132277852e+03
                       6.8810289855965101e-01 2.5991027849487464e+03 2.6793431978000891e-03 4.9079406785863230e+03 3.0669577160237021e-03 4.2171316577176558e+03
                       6.7738935250321086e-01 2.6888011132280781e+03 3.0669577934623834e-03 4.2171316528421103e+03 2.6793431627265638e-03 4.9079406779804522e+03
1.9220772909638553e+14 2.4443810010285282e-03 5.0365750422635210e+03 6.8472517056294091e-01 2.6430848536292947e+03 6.7398585466907801e-01 2.7331351415981694e+03
                       6.8472517056294668e-01 2.6430848536292942e+03 2.4443810010249733e-03 5.0365750422638030e+03 3.0803211093360025e-03 4.3151391172741824e+03